 3
#Nstep =    0, time =    0.00 fs, using Velocity Verlet.
O    0.0000000000   0.0000000000   0.1209140000
H    0.0000000000   0.7566680000  -0.4836580000
H    0.0000000000  -0.7566680000  -0.4836580000
 3
#Nstep =    1, time =    0.50 fs, using Velocity Verlet.
O   -0.0025356244  -0.0003157422   0.1190345750
H   -0.0015442977   0.7568277236  -0.4843777051
H    0.0116461515  -0.7555698158  -0.4736351003
 3
#Nstep =    2, time =    1.00 fs, using Velocity Verlet.
O   -0.0033858287  -0.0003714787   0.1180443078
H   -0.0014109969   0.7549019609  -0.4815879188
H    0.0250073142  -0.7527594026  -0.4607073424
 3
#Nstep =    3, time =    1.50 fs, using Velocity Verlet.
O   -0.0042355261  -0.0003294587   0.1168748891
H   -0.0012934602   0.7509530831  -0.4767682850
H    0.0383761947  -0.7494774662  -0.4469659348
 3
#Nstep =    4, time =    2.00 fs, using Velocity Verlet.
O   -0.0050873647  -0.0001517854   0.1156279261
H   -0.0011936725   0.7455783638  -0.4705047423
H    0.0517968095  -0.7469227822  -0.4334376511
 3
#Nstep =    5, time =    2.50 fs, using Velocity Verlet.
O   -0.0059481305   0.0001803102   0.1144140397
H   -0.0011074255   0.7396444794  -0.4635960631
H    0.0653726569  -0.7462599276  -0.4210794961
 3
#Nstep =    6, time =    3.00 fs, using Velocity Verlet.
O   -0.0068271811   0.0006571488   0.1133374491
H   -0.0010228821   0.7341866944  -0.4569791242
H    0.0792404253  -0.7483705358  -0.4106087632
 3
#Nstep =    7, time =    3.50 fs, using Velocity Verlet.
O   -0.0077336091   0.0012360856   0.1124801916
H   -0.0009195956   0.7302524208  -0.4516132420
H    0.0935239858  -0.7536251616  -0.4023682347
 3
#Nstep =    8, time =    4.00 fs, using Velocity Verlet.
O   -0.0086727383   0.0018466586   0.1118897706
H   -0.0007687317   0.7286972810  -0.4483285293
H    0.1082790039  -0.7617610507  -0.3962817705
 3
#Nstep =    9, time =    4.50 fs, using Velocity Verlet.
O   -0.0096434491   0.0024064235   0.1115728135
H   -0.0005352231   0.7299715720  -0.4476629982
H    0.1234526397  -0.7719199433  -0.3919165517
 3
#Nstep =   10, time =    5.00 fs, using Velocity Verlet.
O   -0.0106380428   0.0028423694   0.1114961369
H   -0.0001818135   0.7339725830  -0.4497412700
H    0.1388854447  -0.7828402973  -0.3886212665
 3
#Nstep =   11, time =    5.50 fs, using Velocity Verlet.
O   -0.0116444309   0.0031081593   0.1115957861
H    0.0003262338   0.7400412112  -0.4542565148
H    0.1543508142  -0.7931275499  -0.3856876561
 3
#Nstep =   12, time =    6.00 fs, using Velocity Verlet.
O   -0.0126490574   0.0031903157   0.1117914430
H    0.0010173408   0.7471091518  -0.4605657437
H    0.1696051628  -0.8014994795  -0.3824838987
 3
#Nstep =   13, time =    6.50 fs, using Velocity Verlet.
O   -0.0136395765   0.0031042677   0.1120015504
H    0.0019116785   0.7539267978  -0.4678492315
H    0.1844323665  -0.8069513680  -0.3785352412
 3
#Nstep =   14, time =    7.00 fs, using Velocity Verlet.
O   -0.0146069344   0.0028856926   0.1121555429
H    0.0030210114   0.7592853494  -0.4752707011
H    0.1986769620  -0.8088406914  -0.3735579433
 3
#Nstep =   15, time =    7.50 fs, using Velocity Verlet.
O   -0.0155465707   0.0025822063   0.1122018196
H    0.0043491935   0.7621791771  -0.4820962709
H    0.2122627100  -0.8069175776  -0.3674668797
 3
#Nstep =   16, time =    8.00 fs, using Velocity Verlet.
O   -0.0164585954   0.0022477964   0.1121122184
H    0.0058916434   0.7619049475  -0.4877639430
H    0.2251959379  -0.8013355852  -0.3603770542
 3
#Nstep =   17, time =    8.50 fs, using Velocity Verlet.
O   -0.0173480869   0.0019391154   0.1118845913
H    0.0076344270   0.7581282865  -0.4919280125
H    0.2375711837  -0.7926595317  -0.3526000832
 3
#Nstep =   18, time =    9.00 fs, using Velocity Verlet.
O   -0.0182266323   0.0017109789   0.1115433640
H    0.0095564597   0.7509251416  -0.4944985944
H    0.2495934458  -0.7818353989  -0.3446135324
 3
#Nstep =   19, time =    9.50 fs, using Velocity Verlet.
O   -0.0191131784   0.0016100869   0.1111369387
H    0.0116342070   0.7407815680  -0.4956635571
H    0.2615869785  -0.7700904659  -0.3369977788
 3
#Nstep =   20, time =   10.00 fs, using Velocity Verlet.
O   -0.0200323614   0.0016670281   0.1107318195
H    0.0138461275   0.7285563199  -0.4958841408
H    0.2739643521  -0.7587689906  -0.3303471332
 3
#Nstep =   21, time =   10.50 fs, using Velocity Verlet.
O   -0.0210102672   0.0018873569   0.1104033831
H    0.0161761866   0.7154055877  -0.4958603879
H    0.2871556369  -0.7491153214  -0.3251579354
 3
#Nstep =   22, time =   11.00 fs, using Velocity Verlet.
O   -0.0220683229   0.0022449054   0.1102235094
H    0.0186155443   0.7026544266  -0.4964523594
H    0.3015097656  -0.7420391783  -0.3217110048
 3
#Nstep =   23, time =   11.50 fs, using Velocity Verlet.
O   -0.0232167757   0.0026822185   0.1102465205
H    0.0211600579   0.6916061354  -0.4985429032
H    0.3171935218  -0.7379319309  -0.3199856933
 3
#Nstep =   24, time =   12.00 fs, using Velocity Verlet.
O   -0.0244497462   0.0031212898   0.1104960883
H    0.0238012142   0.6833088054  -0.5028473225
H    0.3341221031  -0.7366035523  -0.3196424198
 3
#Nstep =   25, time =   12.50 fs, using Velocity Verlet.
O   -0.0257438153   0.0034825789   0.1109564509
H    0.0265118402   0.6783335496  -0.5097126809
H    0.3519509730  -0.7373626854  -0.3200839482
 3
#Nstep =   26, time =   13.00 fs, using Velocity Verlet.
O   -0.0270613200   0.0037049021   0.1115715998
H    0.0292336219   0.6766465059  -0.5189871475
H    0.3701406572  -0.7392043601  -0.3205731387
 3
#Nstep =   27, time =   13.50 fs, using Velocity Verlet.
O   -0.0283571211   0.0037574560   0.1122541769
H    0.0318735905   0.6776433245  -0.5300294008
H    0.3880676731  -0.7410353155  -0.3203647654
 3
#Nstep =   28, time =   14.00 fs, using Velocity Verlet.
O   -0.0295859776   0.0036404294   0.1129012405
H    0.0343114122   0.6803319918  -0.5418533983
H    0.4051342918  -0.7418665346  -0.3188109774
 3
#Nstep =   29, time =   14.50 fs, using Velocity Verlet.
O   -0.0307086693   0.0033776613   0.1134113428
H    0.0364141480   0.6835748666  -0.5533372137
H    0.4208509460  -0.7409387471  -0.3154235175
 3
#Nstep =   30, time =   15.00 fs, using Velocity Verlet.
O   -0.0316962933   0.0030072039   0.1136982667
H    0.0380523367   0.6863010804  -0.5634167057
H    0.4348883486  -0.7377850525  -0.3098980894
 3
#Nstep =   31, time =   15.50 fs, using Velocity Verlet.
O   -0.0325326852   0.0025738449   0.1136995431
H    0.0391121900   0.6876470532  -0.5712185469
H    0.4471037278  -0.7322527413  -0.3021165062
 3
#Nstep =   32, time =   16.00 fs, using Velocity Verlet.
O   -0.0332152696   0.0021248836   0.1133808589
H    0.0395029369   0.6870306842  -0.5761307568
H    0.4575469765  -0.7245104478  -0.2921461345
 3
#Nstep =   33, time =   16.50 fs, using Velocity Verlet.
O   -0.0337556391   0.0017078014   0.1127389825
H    0.0391635069   0.6841918217  -0.5778457660
H    0.4664631641  -0.7150516466  -0.2802432468
 3
#Nstep =   34, time =   17.00 fs, using Velocity Verlet.
O   -0.0341805810   0.0013668586   0.1118029300
H    0.0380701778   0.6792163089  -0.5764007371
H    0.4743011804  -0.7046646817  -0.2668312293
 3
#Nstep =   35, time =   17.50 fs, using Velocity Verlet.
O   -0.0345311807   0.0011376534   0.1106311032
H    0.0362404526   0.6725339722  -0.5721942684
H    0.4816956334  -0.6943443943  -0.2524384341
 3
#Nstep =   36, time =   18.00 fs, using Velocity Verlet.
O   -0.0348582000   0.0010402535   0.1093048997
H    0.0337326292   0.6648890907  -0.5659682554
H    0.4893939140  -0.6851535789  -0.2376149149
 3
#Nstep =   37, time =   18.50 fs, using Velocity Verlet.
O   -0.0352140167   0.0010717849   0.1079195388
H    0.0306425597   0.6572788143  -0.5587534109
H    0.4981315154  -0.6780437707  -0.2228412769
 3
#Nstep =   38, time =   19.00 fs, using Velocity Verlet.
O   -0.0356424771   0.0012012070   0.1065721370
H    0.0270966711   0.6508418310  -0.5517630207
H    0.5084779371  -0.6736609773  -0.2084456740
 3
#Nstep =   39, time =   19.50 fs, using Velocity Verlet.
O   -0.0361692613   0.0013705842   0.1053478928
H    0.0232402556   0.6466834935  -0.5462205475
H    0.5206954841  -0.6721909989  -0.1945569144
 3
#Nstep =   40, time =   20.00 fs, using Velocity Verlet.
O   -0.0367959812   0.0015057928   0.1043065586
H    0.0192227831   0.6456493047  -0.5431325851
H    0.5346602696  -0.6733028435  -0.1811167955
 3
#Nstep =   41, time =   20.50 fs, using Velocity Verlet.
O   -0.0375002908   0.0015348707   0.1034721031
H    0.0151838941   0.6480991599  -0.5430594913
H    0.5498779774  -0.6762142240  -0.1679453927
 3
#Nstep =   42, time =   21.00 fs, using Velocity Verlet.
O   -0.0382423139   0.0014068858   0.1028289108
H    0.0112430941   0.6537736023  -0.5459728553
H    0.5655961861  -0.6798572882  -0.1548232648
 3
#Nstep =   43, time =   21.50 fs, using Velocity Verlet.
O   -0.0389749160   0.0011027226   0.1023274778
H    0.0074971017   0.6618308250  -0.5512778742
H    0.5809700561  -0.6830868249  -0.1415594886
 3
#Nstep =   44, time =   22.00 fs, using Velocity Verlet.
O   -0.0396538253   0.0006344025   0.1018982213
H    0.0040256113   0.6710408256  -0.5579903643
H    0.5952172124  -0.6848636376  -0.1280338290
 3
#Nstep =   45, time =   22.50 fs, using Velocity Verlet.
O   -0.0402450854   0.0000365441   0.1014676295
H    0.0008995373   0.6800434170  -0.5649781514
H    0.6077277799  -0.6843770056  -0.1142116794
 3
#Nstep =   46, time =   23.00 fs, using Velocity Verlet.
O   -0.0407294176  -0.0006440647   0.1009714091
H   -0.0018138182   0.6875760481  -0.5711750165
H    0.6181284684  -0.6811069985  -0.1001387929
 3
#Nstep =   47, time =   23.50 fs, using Velocity Verlet.
O   -0.0411041568  -0.0013567026   0.1003625937
H   -0.0040494167   0.6926251264  -0.5757226681
H    0.6263119355  -0.6748450701  -0.0859280085
 3
#Nstep =   48, time =   24.00 fs, using Velocity Verlet.
O   -0.0413836537  -0.0020515880   0.0996156215
H   -0.0057450389   0.6945051149  -0.5780445433
H    0.6324437399  -0.6656958213  -0.0717501722
 3
#Nstep =   49, time =   24.50 fs, using Velocity Verlet.
O   -0.0415988880  -0.0026828411   0.0987283193
H   -0.0068437672   0.6929014138  -0.5778840114
H    0.6369586718  -0.6540728559  -0.0578274229
 3
#Nstep =   50, time =   25.00 fs, using Velocity Verlet.
O   -0.0417961226  -0.0032125034   0.0977220065
H   -0.0072993641   0.6879023304  -0.5753325230
H    0.6405447804  -0.6406669596  -0.0444066899
 3
#Nstep =   51, time =   25.50 fs, using Velocity Verlet.
O   -0.0420332068  -0.0036165343   0.0966393496
H   -0.0070802303   0.6800074585  -0.5708409958
H    0.6440886532  -0.6263592998  -0.0317142625
 3
#Nstep =   52, time =   26.00 fs, using Velocity Verlet.
O   -0.0423725733  -0.0038915191   0.0955407642
H   -0.0061682791   0.6701002340  -0.5652032031
H    0.6485631347  -0.6120875102  -0.0199152814
 3
#Nstep =   53, time =   26.50 fs, using Velocity Verlet.
O   -0.0428712729  -0.0040603047   0.0944991962
H   -0.0045540880   0.6593756430  -0.5594998527
H    0.6548643168  -0.5986839499  -0.0090868398
 3
#Nstep =   54, time =   27.00 fs, using Velocity Verlet.
O   -0.0435697995  -0.0041733268   0.0935919931
H   -0.0022313404   0.6492019163  -0.5549804124
H    0.6636285995  -0.5867163347   0.0007928695
 3
#Nstep =   55, time =   27.50 fs, using Velocity Verlet.
O   -0.0444827197  -0.0043017753   0.0928890388
H    0.0008049661   0.6409031734  -0.5528650035
H    0.6750821839  -0.5763788528   0.0098347682
 3
#Nstep =   56, time =   28.00 fs, using Velocity Verlet.
O   -0.0455938771  -0.0045215130   0.0924382391
H    0.0045504842   0.6354888466  -0.5540828314
H    0.6889729827  -0.5674768452   0.0182077003
 3
#Nstep =   57, time =   28.50 fs, using Velocity Verlet.
O   -0.0468574866  -0.0048922187   0.0922518718
H    0.0089717326   0.6334035656  -0.5590147353
H    0.7046077752  -0.5595077146   0.0260976302
 3
#Nstep =   58, time =   29.00 fs, using Velocity Verlet.
O   -0.0482058303  -0.0054409462   0.0922996473
H    0.0139857794   0.6344028583  -0.5673538569
H    0.7209946716  -0.5517975909   0.0336784579
 3
#Nstep =   59, time =   29.50 fs, using Velocity Verlet.
O   -0.0495614396  -0.0061580419   0.0925138473
H    0.0194529142   0.6376354581  -0.5781745807
H    0.7370437998  -0.5436484313   0.0410993934
 3
#Nstep =   60, time =   30.00 fs, using Velocity Verlet.
O   -0.0508489342  -0.0070051241   0.0928046174
H    0.0251841325   0.6418915207  -0.5901718476
H    0.7517477263  -0.5344595837   0.0484815500
 3
#Nstep =   61, time =   30.50 fs, using Velocity Verlet.
O   -0.0520039811  -0.0079283642   0.0930778096
H    0.0309591209   0.6458893685  -0.6019478350
H    0.7643056694  -0.5238037436   0.0559214249
 3
#Nstep =   62, time =   31.00 fs, using Velocity Verlet.
O   -0.0529791189  -0.0088705327   0.0932491146
H    0.0365475271   0.6484997069  -0.6122445968
H    0.7741946740  -0.5114599606   0.0634992298
 3
#Nstep =   63, time =   31.50 fs, using Velocity Verlet.
O   -0.0537468831  -0.0097788460   0.0932523724
H    0.0417264306   0.6488757312  -0.6200852924
H    0.7812017427  -0.4974192156   0.0712882174
 3
#Nstep =   64, time =   32.00 fs, using Velocity Verlet.
O   -0.0543009207  -0.0106087701   0.0930432708
H    0.0462906518   0.6465098691  -0.6248388758
H    0.7854312188  -0.4818807780   0.0793606654
 3
#Nstep =   65, time =   32.50 fs, using Velocity Verlet.
O   -0.0546561172  -0.0113259468   0.0926010265
H    0.0500598486   0.6412570597  -0.6262494317
H    0.7872997095  -0.4652449219   0.0877905333
 3
#Nstep =   66, time =   33.00 fs, using Velocity Verlet.
O   -0.0548479996  -0.0119089827   0.0919294328
H    0.0528907989   0.6333456288  -0.6244604396
H    0.7875143215  -0.4480795315   0.0966610931
 3
#Nstep =   67, time =   33.50 fs, using Velocity Verlet.
O   -0.0549296064  -0.0123534310   0.0910566961
H    0.0546929571   0.6233680363  -0.6200249286
H    0.7870074288  -0.4310476454   0.1060776803
 3
#Nstep =   68, time =   34.00 fs, using Velocity Verlet.
O   -0.0549643881  -0.0126754029   0.0900336983
H    0.0554394856   0.6122443754  -0.6138839024
H    0.7868129563  -0.4148136388   0.1161736988
 3
#Nstep =   69, time =   34.50 fs, using Velocity Verlet.
O   -0.0550155570  -0.0129132238   0.0889301477
H    0.0551705862   0.6011479363  -0.6072978875
H    0.7878940088  -0.3999425007   0.1271032655
 3
#Nstep =   70, time =   35.00 fs, using Velocity Verlet.
O   -0.0551336486  -0.0131248869   0.0878270923
H    0.0539857038   0.5913711388  -0.6017068045
H    0.7909532446  -0.3868061818   0.1390199036
 3
#Nstep =   71, time =   35.50 fs, using Velocity Verlet.
O   -0.0553453375  -0.0133790608   0.0868046752
H    0.0520208609   0.5841207817  -0.5985022141
H    0.7962780179  -0.3755215707   0.1520431421
 3
#Nstep =   72, time =   36.00 fs, using Velocity Verlet.
O   -0.0556468882  -0.0137397785   0.0859265807
H    0.0494146925   0.5802694661  -0.5987369867
H    0.8036704070  -0.3659449351   0.1662150512
 3
#Nstep =   73, time =   36.50 fs, using Velocity Verlet.
O   -0.0560043920  -0.0142489970   0.0852253963
H    0.0462774367   0.5801297397  -0.6028485850
H    0.8124819707  -0.3577228800   0.1814558654
 3
#Nstep =   74, time =   37.00 fs, using Velocity Verlet.
O   -0.0563615468  -0.0149148439   0.0846939938
H    0.0426755109   0.5833438317  -0.6105144091
H    0.8217526662  -0.3503686345   0.1975561230
 3
#Nstep =   75, time =   37.50 fs, using Velocity Verlet.
O   -0.0566529145  -0.0157118674   0.0842885176
H    0.0386374057   0.5889716049  -0.6207392106
H    0.8304153666  -0.3433460307   0.2142166522
 3
#Nstep =   76, time =   38.00 fs, using Velocity Verlet.
O   -0.0568174717  -0.0165914635   0.0839423234
H    0.0341783458   0.5957366291  -0.6321268117
H    0.8374862829  -0.3361500852   0.2310990554
 3
#Nstep =   77, time =   38.50 fs, using Velocity Verlet.
O   -0.0568087512  -0.0174956881   0.0835829188
H    0.0293273348   0.6023034165  -0.6431934917
H    0.8421988824  -0.3283649983   0.2478702139
 3
#Nstep =   78, time =   39.00 fs, using Velocity Verlet.
O   -0.0566006633  -0.0183688477   0.0831451903
H    0.0241429554   0.6074916728  -0.6526150427
H    0.8440804846  -0.3196944450   0.2642394022
 3
#Nstep =   79, time =   39.50 fs, using Velocity Verlet.
O   -0.0561898060  -0.0191646968   0.0825789261
H    0.0187167802   0.6104005367  -0.6593732210
H    0.8429855240  -0.3099715726   0.2799853388
 3
#Nstep =   80, time =   40.00 fs, using Velocity Verlet.
O   -0.0555957590  -0.0198498484   0.0818521378
H    0.0131708749   0.6104635941  -0.6628223332
H    0.8391027008  -0.2991598872   0.2949700519
 3
#Nstep =   81, time =   40.50 fs, using Velocity Verlet.
O   -0.0548603118  -0.0204055599   0.0809526525
H    0.0076534845   0.6074735039  -0.6627203998
H    0.8329470553  -0.2873495313   0.3091447707
 3
#Nstep =   82, time =   41.00 fs, using Velocity Verlet.
O   -0.0540446713  -0.0208300496   0.0798890063
H    0.0023295200   0.6015988738  -0.6592542686
H    0.8253251542  -0.2747373910   0.3225608575
 3
#Nstep =   83, time =   41.50 fs, using Velocity Verlet.
O   -0.0532233046  -0.0211412925   0.0786906664
H   -0.0026332154   0.5933860386  -0.6530501348
H    0.8172511392  -0.2615845011   0.3353768032
 3
#Nstep =   84, time =   42.00 fs, using Velocity Verlet.
O   -0.0524747714  -0.0213788679   0.0774079016
H   -0.0070751979   0.5837342133  -0.6451521937
H    0.8098123851  -0.2481618730   0.3478389350
 3
#Nstep =   85, time =   42.50 fs, using Velocity Verlet.
O   -0.0518705612  -0.0216032614   0.0761102951
H   -0.0108523169   0.5738283443  -0.6369492469
H    0.8039994644  -0.2346944246   0.3602316306
 3
#Nstep =   86, time =   43.00 fs, using Velocity Verlet.
O   -0.0514636742  -0.0218903798   0.0748811734
H   -0.0138408477   0.5650026923  -0.6300166638
H    0.8005298753  -0.2213116221   0.3728076950
 3
#Nstep =   87, time =   43.50 fs, using Velocity Verlet.
O   -0.0512798596  -0.0223194588   0.0738055505
H   -0.0159411341   0.5585199746  -0.6258538352
H    0.7997126530  -0.2080185531   0.3857171796
 3
#Nstep =   88, time =   44.00 fs, using Velocity Verlet.
O   -0.0513143033  -0.0229553168   0.0729526870
H   -0.0170798160   0.5552977459  -0.6255517382
H    0.8013980247  -0.1947039714   0.3989517517
 3
#Nstep =   89, time =   44.50 fs, using Velocity Verlet.
O   -0.0515341710  -0.0238298507   0.0723587471
H   -0.0172130976   0.5556647267  -0.6294888240
H    0.8050210519  -0.1811903291   0.4123158667
 3
#Nstep =   90, time =   45.00 fs, using Velocity Verlet.
O   -0.0518857107  -0.0249316282   0.0720160797
H   -0.0163347879   0.5592498992  -0.6371895454
H    0.8097223895  -0.1672880624   0.4254554134
 3
#Nstep =   91, time =   45.50 fs, using Velocity Verlet.
O   -0.0523048725  -0.0262106971   0.0718759346
H   -0.0144811048   0.5650888510  -0.6474543982
H    0.8145216527  -0.1528256021   0.4379446523
 3
#Nstep =   92, time =   46.00 fs, using Velocity Verlet.
O   -0.0527280952  -0.0275941986   0.0718639434
H   -0.0117274189   0.5718957776  -0.6586926717
H    0.8184853670  -0.1376735607   0.4493732506
 3
#Nstep =   93, time =   46.50 fs, using Velocity Verlet.
O   -0.0531003875  -0.0290036256   0.0718986029
H   -0.0081814586   0.5783544297  -0.6692794880
H    0.8208484388  -0.1217617530   0.4594099497
 3
#Nstep =   94, time =   47.00 fs, using Velocity Verlet.
O   -0.0533802922  -0.0303679166   0.0719051581
H   -0.0039757807   0.5833296772  -0.6778181608
H    0.8210854148  -0.1050829416   0.4678445784
 3
#Nstep =   95, time =   47.50 fs, using Velocity Verlet.
O   -0.0535423397  -0.0316308210   0.0718230981
H    0.0007387672   0.5859801750  -0.6832823678
H    0.8189428897  -0.0876885909   0.4746112431
 3
#Nstep =   96, time =   48.00 fs, using Velocity Verlet.
O   -0.0535778358  -0.0327537321   0.0716091771
H    0.0057966032   0.5858015300  -0.6850724369
H    0.8144484476  -0.0696870742   0.4797966724
 3
#Nstep =   97, time =   48.50 fs, using Velocity Verlet.
O   -0.0534947525  -0.0337168204   0.0712388697
H    0.0110199974   0.5826432835  -0.6830393379
H    0.8079063545  -0.0512426667   0.4836411012
 3
#Nstep =   98, time =   49.00 fs, using Velocity Verlet.
O   -0.0533165640  -0.0345210533   0.0707078410
H    0.0162289865   0.5767201321  -0.6775030670
H    0.7998691531  -0.0325547119   0.4865333305
 3
#Nstep =   99, time =   49.50 fs, using Velocity Verlet.
O   -0.0530790277  -0.0351901928   0.0700333238
H    0.0212589044   0.5686070806  -0.6692509301
H    0.7910690528  -0.0138210614   0.4889871461
 3
#Nstep =  100, time =   50.00 fs, using Velocity Verlet.
O   -0.0528246484  -0.0357705337   0.0692548905
H    0.0259776380   0.5592076116  -0.6594996137
H    0.7823128059   0.0047895910   0.4915911423
 3
#Nstep =  101, time =   50.50 fs, using Velocity Verlet.
O   -0.0525952621  -0.0363269498   0.0684330646
H    0.0302979617   0.5496784155  -0.6498003323
H    0.7743516570   0.0231502370   0.4949359006
 3
#Nstep =  102, time =   51.00 fs, using Velocity Verlet.
O   -0.0524236333  -0.0369337747   0.0676430412
H    0.0341801846   0.5412840804  -0.6418543027
H    0.7677453379   0.0411761109   0.4995291404
 3
#Nstep =  103, time =   51.50 fs, using Velocity Verlet.
O   -0.0523256749  -0.0376599803   0.0669616241
H    0.0376187492   0.5351718143  -0.6372260697
H    0.7627519758   0.0588147310   0.5057163760
 3
#Nstep =  104, time =   52.00 fs, using Velocity Verlet.
O   -0.0522953495  -0.0385510051   0.0664493329
H    0.0406109791   0.5321069916  -0.6370036600
H    0.7592784196   0.0760219193   0.5136250645
 3
#Nstep =  105, time =   52.50 fs, using Velocity Verlet.
O   -0.0523039001  -0.0396128689   0.0661340121
H    0.0431196338   0.5322592489  -0.6415136006
H    0.7569054802   0.0927235897   0.5231397848
 3
#Nstep =  106, time =   53.00 fs, using Velocity Verlet.
O   -0.0523041873  -0.0408070166   0.0660028267
H    0.0450557813   0.5351343318  -0.6502150417
H    0.7549738919   0.1088020486   0.5339234040
 3
#Nstep =  107, time =   53.50 fs, using Velocity Verlet.
O   -0.0522395891  -0.0420606737   0.0660073459
H    0.0462942305   0.5397099471  -0.6618585433
H    0.7527101374   0.1241245087   0.5454951761
 3
#Nstep =  108, time =   54.00 fs, using Velocity Verlet.
O   -0.0520544539  -0.0432858196   0.0660789269
H    0.0467059577   0.5447096647  -0.6748265987
H    0.7493599409   0.1385703347   0.5573270965
 3
#Nstep =  109, time =   54.50 fs, using Velocity Verlet.
O   -0.0517028211  -0.0443974180   0.0661453318
H    0.0461892643   0.5488756519  -0.6874804451
H    0.7442955091   0.1520476648   0.5689269621
 3
#Nstep =  110, time =   55.00 fs, using Velocity Verlet.
O   -0.0511539269  -0.0453260802   0.0661424061
H    0.0446887926   0.5511563119  -0.6984073106
H    0.7370839203   0.1645067535   0.5799002645
 3
#Nstep =  111, time =   55.50 fs, using Velocity Verlet.
O   -0.0503947660  -0.0460245435   0.0660198898
H    0.0422015244   0.5507997885  -0.7065515719
H    0.7275217687   0.1759493026   0.5899891075
 3
#Nstep =  112, time =   56.00 fs, using Velocity Verlet.
O   -0.0494310848  -0.0464698684   0.0657435489
H    0.0387765979   0.5473872219  -0.7112651886
H    0.7156511233   0.1864300774   0.5990888144
 3
#Nstep =  113, time =   56.50 fs, using Velocity Verlet.
O   -0.0482876949  -0.0466643719   0.0652964959
H    0.0345151779   0.5408482470  -0.7123321573
H    0.7017646326   0.1960562159   0.6072514191
 3
#Nstep =  114, time =   57.00 fs, using Velocity Verlet.
O   -0.0470065088  -0.0466367644   0.0646808989
H    0.0295663925   0.5314707639  -0.7099965598
H    0.6863784015   0.2049955119   0.6146865904
 3
#Nstep =  115, time =   57.50 fs, using Velocity Verlet.
O   -0.0456413896  -0.0464418283   0.0639197095
H    0.0241160722   0.5198905232  -0.7049741841
H    0.6701615176   0.2134817219   0.6217458324
 3
#Nstep =  116, time =   58.00 fs, using Velocity Verlet.
O   -0.0442513254  -0.0461573193   0.0630580575
H    0.0183731135   0.5070554793  -0.6984259732
H    0.6538413437   0.2218010330   0.6288737820
 3
#Nstep =  117, time =   58.50 fs, using Velocity Verlet.
O   -0.0428927796  -0.0458773525   0.0621626668
H    0.0125543163   0.4941511095  -0.6918701556
H    0.6380972690   0.2302617628   0.6365296262
 3
#Nstep =  118, time =   59.00 fs, using Velocity Verlet.
O   -0.0416118462  -0.0457010809   0.0613160646
H    0.0068658706   0.4824600349  -0.6869950195
H    0.6234547102   0.2391550500   0.6450917804
 3
#Nstep =  119, time =   59.50 fs, using Velocity Verlet.
O   -0.0404377759  -0.0457166173   0.0606030772
H    0.0014835711   0.4731466510  -0.6853531724
H    0.6102021380   0.2487150285   0.6547664874
 3
#Nstep =  120, time =   60.00 fs, using Velocity Verlet.
O   -0.0393801087  -0.0459832196   0.0600912935
H   -0.0034600192   0.4670081574  -0.6879860379
H    0.5983584090   0.2590850410   0.6655223954
 3
#Nstep =  121, time =   60.50 fs, using Velocity Verlet.
O   -0.0384305899  -0.0465175409   0.0598125172
H   -0.0078738361   0.4642808269  -0.6951047551
H    0.5877014418   0.2702931316   0.6770658566
 3
#Nstep =  122, time =   61.00 fs, using Velocity Verlet.
O   -0.0375678889  -0.0472903891   0.0597537974
H   -0.0116986548   0.4645881038  -0.7059834172
H    0.5778334491   0.2822525201   0.6888765201
 3
#Nstep =  123, time =   61.50 fs, using Velocity Verlet.
O   -0.0367631824  -0.0482372105   0.0598634641
H   -0.0148976979   0.4670722814  -0.7191516291
H    0.5682601708   0.2947963133   0.7003040995
 3
#Nstep =  124, time =   62.00 fs, using Velocity Verlet.
O   -0.0359861615  -0.0492766839   0.0600684252
H   -0.0174477862   0.4706453991  -0.7327810897
H    0.5584773656   0.3077217420   0.7106804132
 3
#Nstep =  125, time =   62.50 fs, using Velocity Verlet.
O   -0.0352099258  -0.0503285239   0.0602925575
H   -0.0193352504   0.4742332358  -0.7450720003
H    0.5480443986   0.3208287359   0.7194138903
 3
#Nstep =  126, time =   63.00 fs, using Velocity Verlet.
O   -0.0344139062  -0.0513257282   0.0604694142
H   -0.0205572034   0.4769384968  -0.7545225519
H    0.5366319096   0.3339511253   0.7260573690
 3
#Nstep =  127, time =   63.50 fs, using Velocity Verlet.
O   -0.0335852380  -0.0522208117   0.0605483396
H   -0.0211245839   0.4781187640  -0.7600659266
H    0.5240466491   0.3469776449   0.7303480366
 3
#Nstep =  128, time =   64.00 fs, using Velocity Verlet.
O   -0.0327195801  -0.0529876618   0.0604964485
H   -0.0210647461   0.4774108777  -0.7611191373
H    0.5102470675   0.3598569930   0.7322248643
 3
#Nstep =  129, time =   64.50 fs, using Velocity Verlet.
O   -0.0318216020  -0.0536217972   0.0602997214
H   -0.0204244418   0.4747403594  -0.7576084425
H    0.4953540341   0.3725925235   0.7318366271
 3
#Nstep =  130, time =   65.00 fs, using Velocity Verlet.
O   -0.0309036210  -0.0541413505   0.0599647531
H   -0.0192717404   0.4703304681  -0.7499958563
H    0.4796311168   0.3852487774   0.7295406652
 3
#Nstep =  131, time =   65.50 fs, using Velocity Verlet.
O   -0.0299824846  -0.0545873144   0.0595203404
H   -0.0176928417   0.4646974679  -0.7392739459
H    0.4634319184   0.3979601278   0.7258724845
 3
#Nstep =  132, time =   66.00 fs, using Velocity Verlet.
O   -0.0290763052  -0.0550208338   0.0590178089
H   -0.0157848744   0.4586215852  -0.7269093421
H    0.4471410499   0.4109168406   0.7214840722
 3
#Nstep =  133, time =   66.50 fs, using Velocity Verlet.
O   -0.0282013154  -0.0555164795   0.0585280716
H   -0.0136473848   0.4530762502  -0.7147128575
H    0.4311157020   0.4243290768   0.7170607098
 3
#Nstep =  134, time =   67.00 fs, using Velocity Verlet.
O   -0.0273688055  -0.0561504432   0.0581325177
H   -0.0113744894   0.4490896186  -0.7046000070
H    0.4156291889   0.4383779944   0.7132261008
 3
#Nstep =  135, time =   67.50 fs, using Velocity Verlet.
O   -0.0265826081  -0.0569838596   0.0579066241
H   -0.0090503827   0.4475328974  -0.6982400164
H    0.4008265389   0.4531627216   0.7104514988
 3
#Nstep =  136, time =   68.00 fs, using Velocity Verlet.
O   -0.0258379783  -0.0580445277   0.0578999787
H   -0.0067508771   0.4488808031  -0.6966723668
H    0.3867082518   0.4686497650   0.7089893242
 3
#Nstep =  137, time =   68.50 fs, using Velocity Verlet.
O   -0.0251222980  -0.0593135070   0.0581208695
H   -0.0045495695   0.4530362072  -0.7000345379
H    0.3731476489   0.4846356305   0.7088455123
 3
#Nstep =  138, time =   69.00 fs, using Velocity Verlet.
O   -0.0244167818  -0.0607246457   0.0585336752
H   -0.0025206456   0.4593152629  -0.7075368936
H    0.3599207559   0.5007542020   0.7097958055
 3
#Nstep =  139, time =   69.50 fs, using Velocity Verlet.
O   -0.0236989744  -0.0621789173   0.0590711330
H   -0.0007350986   0.4666187093  -0.7177188231
H    0.3467421524   0.5165329896   0.7114471923
 3
#Nstep =  140, time =   70.00 fs, using Velocity Verlet.
O   -0.0229461163  -0.0635653744   0.0596537369
H    0.0007451714   0.4736944097  -0.7288455421
H    0.3333125009   0.5314631685   0.7133268075
 3
#Nstep =  141, time =   70.50 fs, using Velocity Verlet.
O   -0.0221382850  -0.0647800223   0.0602064927
H    0.0018722215   0.4793706312  -0.7392635675
H    0.3193635328   0.5450658669   0.7149714803
 3
#Nstep =  142, time =   71.00 fs, using Velocity Verlet.
O   -0.0212604505  -0.0657385753   0.0606686896
H    0.0026144655   0.4827025287  -0.7476285415
H    0.3046882791   0.5569481456   0.7160004539
 3
#Nstep =  143, time =   71.50 fs, using Velocity Verlet.
O   -0.0203034929  -0.0663829202   0.0609974229
H    0.0029564765   0.4830357006  -0.7530105246
H    0.2891574139   0.5668420318   0.7161647742
 3
#Nstep =  144, time =   72.00 fs, using Velocity Verlet.
O   -0.0192650565  -0.0666832695   0.0611677155
H    0.0028974694   0.4800220571  -0.7549241519
H    0.2727343344   0.5746228265   0.7153755139
 3
#Nstep =  145, time =   72.50 fs, using Velocity Verlet.
O   -0.0181506339  -0.0666393729   0.0611724909
H    0.0024508782   0.4736307200  -0.7533423759
H    0.2554927834   0.5803174366   0.7137179420
 3
#Nstep =  146, time =   73.00 fs, using Velocity Verlet.
O   -0.0169727878  -0.0662822202   0.0610240931
H    0.0016449673   0.4641617727  -0.7487191827
H    0.2376038919   0.5841176472   0.7114501229
 3