 3
#Nstep =    0, time =    0.00 fs, using Velocity Verlet.
O    0.0000000000   0.0000000000   0.1209140000
H    0.0000000000   0.7566680000  -0.4836580000
H    0.0000000000  -0.7566680000  -0.4836580000
 3
#Nstep =    1, time =    0.50 fs, using Velocity Verlet.
O    0.0008087926   0.0008326023   0.1233005801
H   -0.0051503908   0.7620630004  -0.4968911280
H    0.0019281847  -0.7653800638  -0.4794618274
 3
#Nstep =    2, time =    1.00 fs, using Velocity Verlet.
O    0.0010804701   0.0011525110   0.1239066223
H   -0.0108773609   0.7651092334  -0.5102027560
H    0.0033368850  -0.7735039765  -0.4757693501
 3
#Nstep =    3, time =    1.50 fs, using Velocity Verlet.
O    0.0013528106   0.0015450343   0.1242835396
H   -0.0166361180   0.7654250922  -0.5212834032
H    0.0047669260  -0.7800500571  -0.4706711751
 3
#Nstep =    4, time =    2.00 fs, using Velocity Verlet.
O    0.0016253136   0.0020332020   0.1243919429
H   -0.0224229113   0.7624053768  -0.5296825771
H    0.0062224938  -0.7847786352  -0.4639926139
 3
#Nstep =    5, time =    2.50 fs, using Velocity Verlet.
O    0.0018967627   0.0026306393   0.1242154533
H   -0.0282194803   0.7557845652  -0.5351666793
H    0.0077046285  -0.7876404480  -0.4557072967
 3
#Nstep =    6, time =    3.00 fs, using Velocity Verlet.
O    0.0021646698   0.0033387557   0.1237649024
H   -0.0339800880   0.7456992241  -0.5377434758
H    0.0092070751  -0.7887944312  -0.4459793793
 3
#Nstep =    7, time =    3.50 fs, using Velocity Verlet.
O    0.0024270503   0.0041476770   0.1230811162
H   -0.0396677037   0.7327011005  -0.5377406502
H    0.0107243019  -0.7886356076  -0.4351291668
 3
#Nstep =    8, time =    4.00 fs, using Velocity Verlet.
O    0.0026838976   0.0050377285   0.1222318888
H   -0.0452838270   0.7177043967  -0.5358219460
H    0.0122579184  -0.7877659020  -0.4235689453
 3
#Nstep =    9, time =    4.50 fs, using Velocity Verlet.
O    0.0029376453   0.0059792374   0.1213068342
H   -0.0508764173   0.7019208107  -0.5329558075
H    0.0138172683  -0.7869260417  -0.4117526295
 3
#Nstep =   10, time =    5.00 fs, using Velocity Verlet.
O    0.0031932710   0.0069333356   0.1204093828
H   -0.0565402780   0.6867544651  -0.5303417303
H    0.0154181643  -0.7869032381  -0.4001223703
 3
#Nstep =   11, time =    5.50 fs, using Velocity Verlet.
O    0.0034580029   0.0078562239   0.1196439607
H   -0.0624104094   0.6736225960  -0.5292681014
H    0.0170808990  -0.7884195434  -0.3890472347
 3
#Nstep =   12, time =    6.00 fs, using Velocity Verlet.
O    0.0037403209   0.0087075519   0.1190987816
H   -0.0686433047   0.6637082563  -0.5308963007
H    0.0188273930  -0.7920175673  -0.3787659720
 3
#Nstep =   13, time =    6.50 fs, using Velocity Verlet.
O    0.0040478146   0.0094597735   0.1188285986
H   -0.0753770280   0.6577147353  -0.5360107055
H    0.0206752594  -0.7979633897  -0.3693632492
 3
#Nstep =   14, time =    7.00 fs, using Velocity Verlet.
O    0.0043837452   0.0101036292   0.1188419601
H   -0.0826649229   0.6556965574  -0.5447891283
H    0.0226260956  -0.8061645685  -0.3607969340
 3
#Nstep =   15, time =    7.50 fs, using Velocity Verlet.
O    0.0047453207   0.0106510658   0.1190961219
H   -0.0904449692   0.6569996725  -0.5567113000
H    0.0246622020  -0.8161566748  -0.3529088573
 3
#Nstep =   16, time =    8.00 fs, using Velocity Verlet.
O    0.0051250033   0.0111317911   0.1195079793
H   -0.0985683715   0.6604224013  -0.5707212578
H    0.0267544333  -0.8272095517  -0.3454359421
 3
#Nstep =   17, time =    8.50 fs, using Velocity Verlet.
O    0.0055124330   0.0115828452   0.1199754201
H   -0.1068352759   0.6645215225  -0.5855105738
H    0.0288673706  -0.8384678818  -0.3380658898
 3
#Nstep =   18, time =    9.00 fs, using Velocity Verlet.
O    0.0058964300   0.0120390682   0.1203975476
H   -0.1150305005   0.6678927911  -0.5997804980
H    0.0309632807  -0.8490804018  -0.3304960142
 3
#Nstep =   19, time =    9.50 fs, using Velocity Verlet.
O    0.0062667610   0.0125281863   0.1206885360
H   -0.1229560909   0.6693529506  -0.6124222713
H    0.0330066283  -0.8583039275  -0.3224728459
 3
#Nstep =   20, time =   10.00 fs, using Velocity Verlet.
O    0.0066153588   0.0130700462   0.1207846067
H   -0.1304550260   0.6680223344  -0.6226085924
H    0.0349684255  -0.8655737983  -0.3138113904
 3
#Nstep =   21, time =   10.50 fs, using Velocity Verlet.
O    0.0069367912   0.0136777379   0.1206460376
H   -0.1374209293   0.6633411475  -0.6298157316
H    0.0368285062  -0.8705379826  -0.3044049099
 3
#Nstep =   22, time =   11.00 fs, using Velocity Verlet.
O    0.0072278428   0.0143576839   0.1202578901
H   -0.1437891869   0.6550765160  -0.6338115755
H    0.0385732752  -0.8730655444  -0.2942484082
 3
#Nstep =   23, time =   11.50 fs, using Velocity Verlet.
O    0.0074874934   0.0151085675   0.1196328372
H   -0.1495354807   0.6433609534  -0.6346769526
H    0.0401945989  -0.8732680969  -0.2834622046
 3
#Nstep =   24, time =   12.00 fs, using Velocity Verlet.
O    0.0077184953   0.0159225147   0.1188124557
H   -0.1547079673   0.6286972991  -0.6328569046
H    0.0416969285  -0.8715235022  -0.2722611671
 3
#Nstep =   25, time =   12.50 fs, using Velocity Verlet.
O    0.0079286526   0.0167865004   0.1178648599
H   -0.1594524854   0.6119123230  -0.6291701086
H    0.0431022283  -0.8684517951  -0.2609077290
 3
#Nstep =   26, time =   13.00 fs, using Velocity Verlet.
O    0.0081310768   0.0176824628   0.1168804744
H   -0.1640155453   0.5940925825  -0.6247739250
H    0.0444488928  -0.8648528552  -0.2496797512
 3
#Nstep =   27, time =   13.50 fs, using Velocity Verlet.
O    0.0083435436   0.0185880940   0.1159644411
H   -0.1687298787   0.5764818321  -0.6210743893
H    0.0457875126  -0.8616163665  -0.2388400142
 3
#Nstep =   28, time =   14.00 fs, using Velocity Verlet.
O    0.0085865374   0.0194801118   0.1152233501
H   -0.1739770289   0.5603132472  -0.6195504829
H    0.0471744986  -0.8596059670  -0.2286013373
 3
#Nstep =   29, time =   14.50 fs, using Velocity Verlet.
O    0.0088796514   0.0203401531   0.1147465073
H   -0.1801220347   0.5465874011  -0.6214898399
H    0.0486639022  -0.8595307722  -0.2190935495
 3
#Nstep =   30, time =   15.00 fs, using Velocity Verlet.
O    0.0092365972   0.0211604119   0.1145862230
H   -0.1874239664   0.5358660295  -0.6276895220
H    0.0502971641  -0.8618286227  -0.2103498615
 3
#Nstep =   31, time =   15.50 fs, using Velocity Verlet.
O    0.0096598990   0.0219449251   0.1147430542
H   -0.1959394244   0.5281609569  -0.6382071060
H    0.0520908212  -0.8665754164  -0.2023215359
 3
#Nstep =   32, time =   16.00 fs, using Velocity Verlet.
O    0.0101388727   0.0227075642   0.1151619585
H   -0.2054855734   0.5229319114  -0.6522952923
H    0.0540316180  -0.8734510505  -0.1948822381
 3
#Nstep =   33, time =   16.50 fs, using Velocity Verlet.
O    0.0106527749   0.0234669306   0.1157457464
H   -0.2156962834   0.5192363951  -0.6686109285
H    0.0560826703  -0.8818082726  -0.1878325277
 3
#Nstep =   34, time =   17.00 fs, using Velocity Verlet.
O    0.0111759892   0.0242389857   0.1163784103
H   -0.2261130964   0.5159787211  -0.6855521746
H    0.0581921117  -0.8908047325  -0.1809329668
 3
#Nstep =   35, time =   17.50 fs, using Velocity Verlet.
O    0.0116828899   0.0250323093   0.1169466438
H   -0.2362716481   0.5121276836  -0.7015617392
H    0.0603023154  -0.8995454067  -0.1739424466
 3
#Nstep =   36, time =   18.00 fs, using Velocity Verlet.
O    0.0121513159   0.0258476538   0.1173541916
H   -0.2457659822   0.5068468914  -0.7153273016
H    0.0623590689  -0.9072058430  -0.1666455221
 3
#Nstep =   37, time =   18.50 fs, using Velocity Verlet.
O    0.0125644337   0.0266803286   0.1175287804
H   -0.2542858303   0.4995453883  -0.7258774013
H    0.0643192862  -0.9131206384  -0.1588665277
 3
#Nstep =   38, time =   19.00 fs, using Velocity Verlet.
O    0.0129112407   0.0275230073   0.1174239099
H   -0.2616292797   0.4898831202  -0.7326024581
H    0.0661556823  -0.9168334521  -0.1504769904
 3
#Nstep =   39, time =   19.50 fs, using Velocity Verlet.
O    0.0131862274   0.0283668205   0.1170192147
H   -0.2676979233   0.4777769251  -0.7352460420
H    0.0678572877  -0.9181203446  -0.1414101035
 3
#Nstep =   40, time =   20.00 fs, using Velocity Verlet.
O    0.0133896598   0.0292016988   0.1163227156
H   -0.2725019690   0.4634205624  -0.7339263295
H    0.0694300903  -0.9170152540  -0.1316749934
 3
#Nstep =   41, time =   20.50 fs, using Velocity Verlet.
O    0.0135290901   0.0300187133   0.1153723675
H   -0.2761895497   0.4472672981  -0.7291780096
H    0.0709023436  -0.9138297269  -0.1213393937
 3
#Nstep =   42, time =   21.00 fs, using Velocity Verlet.
O    0.0136203786   0.0308120474   0.1142343550
H   -0.2790660563   0.4299796792  -0.7219548421
H    0.0723277003  -0.9091339842  -0.1105000271
 3
#Nstep =   43, time =   21.50 fs, using Velocity Verlet.
O    0.0136875632   0.0315791953   0.1129991233
H   -0.2815896554   0.4123738587  -0.7135864382
H    0.0737827993  -0.9037044113  -0.0992628320
 3
#Nstep =   44, time =   22.00 fs, using Velocity Verlet.
O    0.0137613327   0.0323207887   0.1117737477
H   -0.2843404865   0.3953414484  -0.7056727815
H    0.0753606915  -0.8984426429  -0.0877273269
 3
#Nstep =   45, time =   22.50 fs, using Velocity Verlet.
O    0.0138753730   0.0330410570   0.1106682734
H   -0.2879524351   0.3797311485  -0.6998835069
H    0.0771606109  -0.8942645095  -0.0759705148
 3
#Nstep =   46, time =   23.00 fs, using Velocity Verlet.
O    0.0140602931   0.0337488138   0.1097761702
H   -0.2930032503   0.3662003949  -0.6976613646
H    0.0792744952  -0.8919673364  -0.0640332024
 3
#Nstep =   47, time =   23.50 fs, using Velocity Verlet.
O    0.0143361543   0.0344573474   0.1091539037
H   -0.2998794066   0.3550860713  -0.6998962731
H    0.0817704238  -0.8920989232  -0.0519216938
 3
#Nstep =   48, time =   24.00 fs, using Velocity Verlet.
O    0.0147058381   0.0351811677   0.1088070318
H   -0.3086512750   0.3463480676  -0.7066763510
H    0.0846730537  -0.8948494593  -0.0396360839
 3
#Nstep =   49, time =   24.50 fs, using Velocity Verlet.
O    0.0151529697   0.0359313296   0.1086876661
H   -0.3190289465   0.3395840345  -0.7172329560
H    0.0879523995  -0.8999920594  -0.0271849313
 3
#Nstep =   50, time =   25.00 fs, using Velocity Verlet.
O    0.0156466420   0.0367116601   0.1087073882
H   -0.3304437374   0.3341283157  -0.7301569853
H    0.0915303581  -0.9069218119  -0.0145739581
 3
#Nstep =   51, time =   25.50 fs, using Velocity Verlet.
O    0.0161494950   0.0375163256   0.1087601636
H   -0.3421907517   0.3292128958  -0.7437595129
H    0.0952950279  -0.9147781091  -0.0018091104
 3
#Nstep =   52, time =   26.00 fs, using Velocity Verlet.
O    0.0166251739   0.0383303766   0.1087436781
H   -0.3535640046   0.3241099405  -0.7564003267
H    0.0991174586  -0.9225958397   0.0110933359
 3
#Nstep =   53, time =   26.50 fs, using Velocity Verlet.
O    0.0170433236   0.0391331602   0.1085731586
H   -0.3639527161   0.3182177726  -0.7667037769
H    0.1028686707  -0.9294455228   0.0241032494
 3
#Nstep =   54, time =   27.00 fs, using Velocity Verlet.
O    0.0173819916   0.0399028439   0.1081875864
H   -0.3728939639   0.3110951497  -0.7736611627
H    0.1064341676  -0.9345393881   0.0371804198
 3
#Nstep =   55, time =   27.50 fs, using Velocity Verlet.
O    0.0176281911   0.0406202254   0.1075510726
H   -0.3800910142   0.3024661114  -0.7766560791
H    0.1097233339  -0.9372966963   0.0502780739
 3
#Nstep =   56, time =   28.00 fs, using Velocity Verlet.
O    0.0177776944   0.0412708028   0.1066532176
H   -0.3854131133   0.2922226261  -0.7754622313
H    0.1126725058  -0.9373792421   0.0633349755
 3
#Nstep =   57, time =   28.50 fs, using Velocity Verlet.
O    0.0178353880   0.0418461423   0.1055106671
H   -0.3889037076   0.2804332286  -0.7702611899
H    0.1152475654  -0.9347216945   0.0762684970
 3
#Nstep =   58, time =   29.00 fs, using Velocity Verlet.
O    0.0178163567   0.0423460999   0.1041672143
H   -0.3908061821   0.2673295440  -0.7616682093
H    0.1174524596  -0.9295533964   0.0889988059
 3
#Nstep =   59, time =   29.50 fs, using Velocity Verlet.
O    0.0177464046   0.0427803790   0.1026911878
H   -0.3915781772   0.2532700697  -0.7507230109
H    0.1193352566  -0.9223868537   0.1014811093
 3
#Nstep =   60, time =   30.00 fs, using Velocity Verlet.
O    0.0176613741   0.0431685084   0.1011712007
H   -0.3918787861   0.2386984403  -0.7388368871
H    0.1209861520  -0.9139756656   0.1137202301
 3
#Nstep =   61, time =   30.50 fs, using Velocity Verlet.
O    0.0176045912   0.0435388472   0.0997085911
H   -0.3925193987   0.2240895555  -0.7276744965
H    0.1225288584  -0.9052448439   0.1257723881
 3
#Nstep =   62, time =   31.00 fs, using Velocity Verlet.
O    0.0176214176   0.0439267531   0.0984041986
H   -0.3943624670   0.2098759689  -0.7189377973
H    0.1241058414  -0.8971881461   0.1377390135
 3
#Nstep =   63, time =   31.50 fs, using Velocity Verlet.
O    0.0177507638   0.0443714195   0.0973398377
H   -0.3981660394   0.1963649476  -0.7140564940
H    0.1258575611  -0.8907349145   0.1497512450
 3
#Nstep =   64, time =   32.00 fs, using Velocity Verlet.
O    0.0180153852   0.0449105094   0.0965596226
H   -0.4044043823   0.1836799417  -0.7138602784
H    0.1278971066  -0.8866063882   0.1619385980
 3
#Nstep =   65, time =   32.50 fs, using Velocity Verlet.
O    0.0184143402   0.0455720939   0.0960586400
H   -0.4131215265   0.1717597991  -0.7183498088
H    0.1302834549  -0.8851869617   0.1743797108
 3
#Nstep =   66, time =   33.00 fs, using Velocity Verlet.
O    0.0189217695   0.0463664985   0.0957834000
H   -0.4238945973   0.1603968503  -0.7266730856
H    0.1330041753  -0.8864328525   0.1870715782
 3
#Nstep =   67, time =   33.50 fs, using Velocity Verlet.
O    0.0194939802   0.0472825417   0.0956460104
H   -0.4359487266   0.1492950808  -0.7373578595
H    0.1359778920  -0.8898705738   0.1999369788
 3
#Nstep =   68, time =   34.00 fs, using Velocity Verlet.
O    0.0200804511   0.0482891633   0.0955461920
H   -0.4483490553   0.1381459213  -0.7486773584
H    0.1390716178  -0.8946985680   0.2128407742
 3
#Nstep =   69, time =   34.50 fs, using Velocity Verlet.
O    0.0206334505   0.0493413922   0.0953905550
H   -0.4601782605   0.1266889685  -0.7589769780
H    0.1421256199  -0.8999426487   0.2256106432
 3
#Nstep =   70, time =   35.00 fs, using Velocity Verlet.
O    0.0211140083   0.0503884603   0.0951040735
H   -0.4706574747   0.1147408249  -0.7668834949
H    0.1449795488  -0.9046136279   0.2380641760
 3
#Nstep =   71, time =   35.50 fs, using Velocity Verlet.
O    0.0214944259   0.0513815290   0.0946343393
H   -0.4792080981   0.1021986126  -0.7714003988
H    0.1474944191  -0.9078334595   0.2500366891
 3
#Nstep =   72, time =   36.00 fs, using Velocity Verlet.
O    0.0217585541   0.0522792716   0.0939516218
H   -0.4854710061   0.0890336936  -0.7719290520
H    0.1495674090  -0.9089175661   0.2614014251
 3
#Nstep =   73, time =   36.50 fs, using Velocity Verlet.
O    0.0219012772   0.0530508503   0.0930482357
H   -0.4893062513   0.0752920272  -0.7682650367
H    0.1511397503  -0.9074224486   0.2720759511
 3
#Nstep =   74, time =   37.00 fs, using Velocity Verlet.
O    0.0219286470   0.0536770123   0.0919389334
H   -0.4908012071   0.0611309732  -0.7606078573
H    0.1522027551  -0.9031818359   0.2820268669
 3
#Nstep =   75, time =   37.50 fs, using Velocity Verlet.
O    0.0218587755   0.0541551637   0.0906606028
H   -0.4902914076   0.0466869754  -0.7495831480
H    0.1528044795  -0.8963271011   0.2912918269
 3
#Nstep =   76, time =   38.00 fs, using Velocity Verlet.
O    0.0217220624   0.0545015506   0.0892696191
H   -0.4883666031   0.0321418739  -0.7362161113
H    0.1530521677  -0.8872798915   0.3000024911
 3
#Nstep =   77, time =   38.50 fs, using Velocity Verlet.
O    0.0215599845   0.0547492682   0.0878375800
H   -0.4858464892   0.0176498552  -0.7218732482
H    0.1531071980  -0.8767196824   0.3083889633
 3
#Nstep =   78, time =   39.00 fs, using Velocity Verlet.
O    0.0214216524   0.0549471210   0.0864444681
H   -0.4837142670   0.0033127076  -0.7081409678
H    0.1531732934  -0.8655228875   0.3167681637
 3
#Nstep =   79, time =   39.50 fs, using Velocity Verlet.
O    0.0213571308   0.0551547286   0.0851671922
H   -0.4829913269  -0.0108357938  -0.6966172178
H    0.1534772234  -0.8546695664   0.3255173443
 3
#Nstep =   80, time =   40.00 fs, using Velocity Verlet.
O    0.0214076417   0.0554341801   0.0840642654
H   -0.4845546264  -0.0248262263  -0.6886250979
H    0.1542416830  -0.8451146197   0.3350308820
 3
#Nstep =   81, time =   40.50 fs, using Velocity Verlet.
O    0.0215950389   0.0558385653   0.0831613391
H   -0.4889367665  -0.0387198003  -0.6849212968
H    0.1556524240  -0.8376394821   0.3456583263
 3
#Nstep =   82, time =   41.00 fs, using Velocity Verlet.
O    0.0219145510   0.0563993450   0.0824442283
H   -0.4961761494  -0.0525476883  -0.6855070699
H    0.1578236015  -0.8327123261   0.3576260778
 3
#Nstep =   83, time =   41.50 fs, using Velocity Verlet.
O    0.0223346866   0.0571168730   0.0818625519
H   -0.5057885384  -0.0662678591  -0.6896228470
H    0.1607708324  -0.8303807996   0.3709742154
 3
#Nstep =   84, time =   42.00 fs, using Velocity Verlet.
O    0.0228055855   0.0579591911   0.0813433142
H   -0.5168952762  -0.0797715070  -0.6959537815
H    0.1644068590  -0.8302464682   0.3855464823
 3
#Nstep =   85, time =   42.50 fs, using Velocity Verlet.
O    0.0232713306   0.0588691695   0.0808091760
H   -0.5284377623  -0.0929105374  -0.7029516282
H    0.1685606118  -0.8315506582   0.4010221607
 3
#Nstep =   86, time =   43.00 fs, using Velocity Verlet.
O    0.0236805127   0.0597761649   0.0801933332
H   -0.5393776426  -0.1055272229  -0.7091268562
H    0.1730097025  -0.8333298468   0.4169720383
 3
#Nstep =   87, time =   43.50 fs, using Velocity Verlet.
O    0.0239925814   0.0606081248   0.0794472513
H   -0.5488334945  -0.1174804329  -0.7132386386
H    0.1775163129  -0.8345815454   0.4329256282
 3
#Nstep =   88, time =   44.00 fs, using Velocity Verlet.
O    0.0241803155   0.0613012901   0.0785423089
H   -0.5561512829  -0.1286644145  -0.7143841722
H    0.1818584527  -0.8343995219   0.4484344055
 3
#Nstep =   89, time =   44.50 fs, using Velocity Verlet.
O    0.0242299369   0.0618064145   0.0774683671
H   -0.5609280051  -0.1390183523  -0.7120221081
H    0.1858517882  -0.8320629512   0.4631179490
 3
#Nstep =   90, time =   45.00 fs, using Velocity Verlet.
O    0.0241405637   0.0620920951   0.0762323563
H   -0.5630144802  -0.1485271573  -0.7059727698
H    0.1893611335  -0.8270884950   0.4766865803
 3
#Nstep =   91, time =   45.50 fs, using Velocity Verlet.
O    0.0239242962   0.0621471915   0.0748580300
H   -0.5625237302  -0.1572243028  -0.6964277306
H    0.1923074560  -0.8192658596   0.4889548567
 3
#Nstep =   92, time =   46.00 fs, using Velocity Verlet.
O    0.0236066710   0.0619832989   0.0733846161
H   -0.5598480728  -0.1652119472  -0.6839578544
H    0.1946777687  -0.8086769264   0.4998710172
 3
#Nstep =   93, time =   46.50 fs, using Velocity Verlet.
O    0.0232262197   0.0616357523   0.0718634346
H   -0.5556597604  -0.1726858749  -0.6694901775
H    0.1965327661  -0.7956867482   0.5095475466
 3
#Nstep =   94, time =   47.00 fs, using Velocity Verlet.
O    0.0228325255   0.0611623612   0.0703535163
H   -0.5508791425  -0.1799455729  -0.6542469626
H    0.1980058294  -0.7809133894   0.5182697681
 3
#Nstep =   95, time =   47.50 fs, using Velocity Verlet.
O    0.0224819188   0.0606395467   0.0689152895
H   -0.5465964219  -0.1873820161  -0.6396313266
H    0.1992931046  -0.7651788366   0.5264816779
 3
#Nstep =   96, time =   48.00 fs, using Velocity Verlet.
O    0.0222297774   0.0601548142   0.0676010518
H   -0.5439296065  -0.1954356987  -0.6270380822
H    0.2006336549  -0.7494314800   0.5347480246
 3
#Nstep =   97, time =   48.50 fs, using Velocity Verlet.
O    0.0221197813   0.0597949159   0.0664432223
H   -0.5438224826  -0.2045210123  -0.6176001125
H    0.2022779876  -0.7346338621   0.5436871293
 3
#Nstep =   98, time =   49.00 fs, using Velocity Verlet.
O    0.0221730002   0.0596310427   0.0654447043
H   -0.5468290355  -0.2149279446  -0.6119361639
H    0.2044456744  -0.7216259388   0.5538716596
 3
#Nstep =   99, time =   49.50 fs, using Velocity Verlet.
O    0.0223812951   0.0597044369   0.0645769349
H   -0.5529605250  -0.2267302496  -0.6099963290
H    0.2072771624  -0.7109885554   0.5657050591
 3
#Nstep =  100, time =   50.00 fs, using Velocity Verlet.
O    0.0227086537   0.0600167548   0.0637874561
H   -0.5616663684  -0.2397486855  -0.6110719422
H    0.2107934524  -0.7029272410   0.5793112760
 3
#Nstep =  101, time =   50.50 fs, using Velocity Verlet.
O    0.0231009533   0.0605298861   0.0630142634
H   -0.5719761650  -0.2536006035  -0.6139806752
H    0.2148831727  -0.6972197603   0.5944921199
 3
#Nstep =  102, time =   51.00 fs, using Velocity Verlet.
O    0.0234993776   0.0611757169   0.0622012579
H   -0.5827322029  -0.2677982043  -0.6173472392
H    0.2193221222  -0.6932728029   0.6107627024
 3
#Nstep =  103, time =   51.50 fs, using Velocity Verlet.
O    0.0238514528   0.0618709090   0.0613084942
H   -0.5928067371  -0.2818443904  -0.6198582869
H    0.2238153821  -0.6902607236   0.6274436931
 3
#Nstep =  104, time =   52.00 fs, using Velocity Verlet.
O    0.0241171842   0.0625313847   0.0603151728
H   -0.6012495289  -0.2953025773  -0.6204280374
H    0.2280474653  -0.6872856230   0.6437794409
 3
#Nstep =  105, time =   52.50 fs, using Velocity Verlet.
O    0.0242709595   0.0630833636   0.0592174935
H   -0.6073628809  -0.3078372600  -0.6182754151
H    0.2317271464  -0.6835119612   0.6590491856
 3
#Nstep =  106, time =   53.00 fs, using Velocity Verlet.
O    0.0243010835   0.0634701358   0.0580247187
H   -0.6107260406  -0.3192314714  -0.6129433098
H    0.2346192654  -0.6782566065   0.6726488059
 3
#Nstep =  107, time =   53.50 fs, using Velocity Verlet.
O    0.0242087392   0.0636555216   0.0567561719
H   -0.6111970366  -0.3293894709  -0.6042971597
H    0.2365630514  -0.6710410531   0.6841370360
 3
#Nstep =  108, time =   54.00 fs, using Velocity Verlet.
O    0.0240075745   0.0636260777   0.0554397603
H   -0.6089178224  -0.3383396098  -0.5925295771
H    0.2374838416  -0.6616235781   0.6932635451
 3
#Nstep =  109, time =   54.50 fs, using Velocity Verlet.
O    0.0237236828   0.0633931704   0.0541097549
H   -0.6043248703  -0.3462532363  -0.5781596015
H    0.2374039646  -0.6500132400   0.7000034225
 3
#Nstep =  110, time =   55.00 fs, using Velocity Verlet.
O    0.0233947498   0.0629936893   0.0528029570
H   -0.5981406304  -0.3534659627  -0.5620007105
H    0.2364477454  -0.6364599384   0.7045860354
 3
#Nstep =  111, time =   55.50 fs, using Velocity Verlet.
O    0.0230676169   0.0624883730   0.0515543514
H   -0.5913300915  -0.3604761530  -0.5450954841
H    0.2348367300  -0.6214293548   0.7074986827
 3
#Nstep =  112, time =   56.00 fs, using Velocity Verlet.
O    0.0227934788   0.0619570304   0.0503918862
H   -0.5850102657  -0.3679070965  -0.5286094004
H    0.2328753953  -0.6055649275   0.7094632522
 3
#Nstep =  113, time =   56.50 fs, using Velocity Verlet.
O    0.0226200164   0.0614893879   0.0493299692
H   -0.5802993850  -0.3764225486  -0.5136719759
H    0.2309251956  -0.5896270405   0.7113805768
 3
#Nstep =  114, time =   57.00 fs, using Velocity Verlet.
O    0.0225812344   0.0611710864   0.0483632160
H   -0.5781152817  -0.3865964577  -0.5011794324
H    0.2293642523  -0.5744010415   0.7142323399
 3
#Nstep =  115, time =   57.50 fs, using Velocity Verlet.
O    0.0226880494   0.0610668418   0.0474640536
H   -0.5789728065  -0.3987634763  -0.4916134981
H    0.2285341508  -0.5605794466   0.7189379100
 3
#Nstep =  116, time =   58.00 fs, using Velocity Verlet.
O    0.0229237899   0.0612052565   0.0465877154
H   -0.5828538459  -0.4128999803  -0.4849472456
H    0.2286813905  -0.5486398611   0.7261808957
 3
#Nstep =  117, time =   58.50 fs, using Velocity Verlet.
O    0.0232473625   0.0615704792   0.0456842183
H   -0.5892069267  -0.4285945217  -0.4806739616
H    0.2299067245  -0.5387421375   0.7362479167
 3
#Nstep =  118, time =   59.00 fs, using Velocity Verlet.
O    0.0236035253   0.0621049015   0.0447122677
H   -0.5970880158  -0.4451381957  -0.4779483917
H    0.2321429206  -0.5306808216   0.7489491458
 3
#Nstep =  119, time =   59.50 fs, using Velocity Verlet.
O    0.0239355229   0.0627221775   0.0436493036
H   -0.6053802926  -0.4616843057  -0.4757870940
H    0.2351739541  -0.5239321227   0.7636592165
 3
#Nstep =  120, time =   60.00 fs, using Velocity Verlet.
O    0.0241948292   0.0633245897   0.0424943673
H   -0.6129995433  -0.4774012741  -0.4732503305
H    0.2386857774  -0.5177766477   0.7794536052
 3
#Nstep =  121, time =   60.50 fs, using Velocity Verlet.
O    0.0243461113   0.0638188392   0.0412645335
H   -0.6190344099  -0.4915809530  -0.4695612101
H    0.2423277934  -0.5114416979   0.7952844121
 3
#Nstep =  122, time =   61.00 fs, using Velocity Verlet.
O    0.0243683704   0.0641271815   0.0399882951
H   -0.6228187549  -0.5036987545  -0.4641621140
H    0.2457671160  -0.5042179023   0.8101417785
 3
#Nstep =  123, time =   61.50 fs, using Velocity Verlet.
O    0.0242541267   0.0641936165   0.0386992440
H   -0.6239565800  -0.5134379382  -0.4567299284
H    0.2487264423  -0.4955331660   0.8231694184
 3
#Nstep =  124, time =   62.00 fs, using Velocity Verlet.
O    0.0240083061   0.0639866913   0.0374319978
H   -0.6223254315  -0.5206945335  -0.4471760543
H    0.2510051346  -0.4849922379   0.8337292815
 3
#Nstep =  125, time =   62.50 fs, using Velocity Verlet.
O    0.0236478219   0.0635012256   0.0362201693
H   -0.6180808755  -0.5255821653  -0.4356489357
H    0.2524903334  -0.4723992737   0.8414363111
 3
#Nstep =  126, time =   63.00 fs, using Velocity Verlet.
O    0.0232014333   0.0627597139   0.0350939798
H   -0.6116633729  -0.5284481096  -0.4225300984
H    0.2531660797  -0.4577640276   0.8461923556
 3
#Nstep =  127, time =   63.50 fs, using Velocity Verlet.
O    0.0227085793   0.0618118754   0.0340766450
H   -0.6037855392  -0.5298825035  -0.4084051797
H    0.2531190666  -0.4412855086   0.8482145745
 3
#Nstep =  128, time =   64.00 fs, using Velocity Verlet.
O    0.0222165776   0.0607315077   0.0331807447
H   -0.5953855489  -0.5306957452  -0.3940107758
H    0.2525364990  -0.4233246340   0.8480398989
 3
#Nstep =  129, time =   64.50 fs, using Velocity Verlet.
O    0.0217756423   0.0596101149   0.0324047002
H   -0.5875368372  -0.5318498088  -0.3801549920
H    0.2516948625  -0.4043717873   0.8465014877
 3
#Nstep =  130, time =   65.00 fs, using Velocity Verlet.
O    0.0214312285   0.0585461856   0.0317294525
H   -0.5813035033  -0.5343329825  -0.3676048472
H    0.2509368305  -0.3850018919   0.8446688649
 3
#Nstep =  131, time =   65.50 fs, using Velocity Verlet.
O    0.0212145908   0.0576300728   0.0311169342
H   -0.5775513000  -0.5389844518  -0.3569504921
H    0.2506321021  -0.3658098470   0.8437363902
 3
#Nstep =  132, time =   66.00 fs, using Velocity Verlet.
O    0.0211345400   0.0569272296   0.0305130975
H   -0.5767604612  -0.5463085237  -0.3484826389
H    0.2511210668  -0.3473302192   0.8448526224
 3
#Nstep =  133, time =   66.50 fs, using Velocity Verlet.
O    0.0211742845   0.0564649064   0.0298575219
H   -0.5789079110  -0.5563423006  -0.3421304574
H    0.2526471600  -0.3299584214   0.8489057279
 3
#Nstep =  134, time =   67.00 fs, using Velocity Verlet.
O    0.0212955227   0.0562268900   0.0290980789
H   -0.5834689077  -0.5686350393  -0.3374839708
H    0.2552935411  -0.3138878640   0.8563131123
 3
#Nstep =  135, time =   67.50 fs, using Velocity Verlet.
O    0.0214486243   0.0561585978   0.0282047858
H   -0.5895458262  -0.5823609562  -0.3338919563
H    0.2589502864  -0.2990779937   0.8668994407
 3
#Nstep =  136, time =   68.00 fs, using Velocity Verlet.
O    0.0215844484   0.0561811104   0.0271766370
H   -0.5960718695  -0.5965139133  -0.3306013088
H    0.2633305166  -0.2852823347   0.8799275702
 3
#Nstep =  137, time =   68.50 fs, using Velocity Verlet.
O    0.0216630375   0.0562083075   0.0260393768
H   -0.6020062756  -0.6100975070  -0.3268875580
H    0.2680276096  -0.2721303901   0.8942644131
 3
#Nstep =  138, time =   69.00 fs, using Velocity Verlet.
O    0.0216575376   0.0561613536   0.0248368374
H   -0.6064708394  -0.6222610676  -0.3221438077
H    0.2725895172  -0.2592215512   0.9086073699
 3
#Nstep =  139, time =   69.50 fs, using Velocity Verlet.
O    0.0215544829   0.0559780193   0.0236204515
H   -0.6088223342  -0.6323756128  -0.3159250229
H    0.2765866805  -0.2461970932   0.9216950646
 3
#Nstep =  140, time =   70.00 fs, using Velocity Verlet.
O    0.0213524061   0.0556172009   0.0224405763
H   -0.6086786383  -0.6400652526  -0.3079610678
H    0.2796602300  -0.2327805080   0.9324580892
 3
#Nstep =  141, time =   70.50 fs, using Velocity Verlet.
O    0.0210603467   0.0550605168   0.0213411543
H   -0.6059221867  -0.6452143677  -0.2981566935
H    0.2815491181  -0.2187956625   0.9401037398
 3
#Nstep =  142, time =   71.00 fs, using Velocity Verlet.
O    0.0206970359   0.0543130386   0.0203570282
H   -0.6007013692  -0.6479704873  -0.2865924207
H    0.2821044565  -0.2041755237   0.9441595136
 3
#Nstep =  143, time =   71.50 fs, using Velocity Verlet.
O    0.0202902909   0.0534035196   0.0195114500
H   -0.5934321933  -0.6487528725  -0.2735200535
H    0.2813007831  -0.1889572053   0.9445081578
 3
#Nstep =  144, time =   72.00 fs, using Velocity Verlet.
O    0.0198754324   0.0523827129   0.0188126959
H   -0.5847799594  -0.6482499134  -0.2593359541
H    0.2792428471  -0.1732578709   0.9414146748
 3
#Nstep =  145, time =   72.50 fs, using Velocity Verlet.
O    0.0194921870   0.0513191776   0.0182509405
H   -0.5756072545  -0.6473805289  -0.2445343462
H    0.2761627582  -0.1572467728   0.9355292346
 3
#Nstep =  146, time =   73.00 fs, using Velocity Verlet.
O    0.0191797573   0.0502921923   0.0177960418
H   -0.5668824231  -0.6472051292  -0.2296460209
H    0.2724066844  -0.1411218137   0.9278610450
 3