 3
#Nstep =    0, time =    0.00 fs, using Velocity Verlet.
O    0.0000000000   0.0000000000   0.1209140000
H    0.0000000000   0.7566680000  -0.4836580000
H    0.0000000000  -0.7566680000  -0.4836580000
 3
#Nstep =    1, time =    0.50 fs, using Velocity Verlet.
O    0.0006203769   0.0009252675   0.1211333334
H    0.0044918577   0.7602596653  -0.4879935227
H   -0.0069634213  -0.7639459042  -0.4836478886
 3
#Nstep =    2, time =    1.00 fs, using Velocity Verlet.
O    0.0008418075   0.0012407597   0.1219465175
H    0.0088020339   0.7664611199  -0.4968459537
H   -0.0147917939  -0.7751549189  -0.4877023699
 3
#Nstep =    3, time =    1.50 fs, using Velocity Verlet.
O    0.0010717978   0.0015429642   0.1231821326
H    0.0132209234   0.7745395423  -0.5092866615
H   -0.0228648635  -0.7880300031  -0.4948734081
 3
#Nstep =    4, time =    2.00 fs, using Velocity Verlet.
O    0.0013078715   0.0018232375   0.1246818989
H    0.0176863118   0.7828650167  -0.5240630339
H   -0.0310811305  -0.8008040566  -0.5039013964
 3
#Nstep =    5, time =    2.50 fs, using Velocity Verlet.
O    0.0015481784   0.0020795074   0.1262845501
H    0.0221510420   0.7898388414  -0.5398697365
H   -0.0393640692  -0.8118454884  -0.5135320456
 3
#Nstep =    6, time =    3.00 fs, using Velocity Verlet.
O    0.0017912824   0.0023140907   0.1278458599
H    0.0265784927   0.7940997998  -0.5555160120
H   -0.0476542329  -0.8198298519  -0.5226669511
 3
#Nstep =    7, time =    3.50 fs, using Velocity Verlet.
O    0.0020365753   0.0025322381   0.1292497586
H    0.0309504820   0.7946144240  -0.5700309224
H   -0.0559237410  -0.8238070185  -0.5304347872
 3
#Nstep =    8, time =    4.00 fs, using Velocity Verlet.
O    0.0022845082   0.0027411318   0.1304099036
H    0.0352717740   0.7906690712  -0.5826867818
H   -0.0641844602  -0.8231773391  -0.5361928102
 3
#Nstep =    9, time =    4.50 fs, using Velocity Verlet.
O    0.0025348985   0.0029480640   0.1312594313
H    0.0395414797   0.7818733544  -0.5928970099
H   -0.0724325481  -0.8176661651  -0.5394663389
 3
#Nstep =   10, time =    5.00 fs, using Velocity Verlet.
O    0.0027846117   0.0031586625   0.1317491281
H    0.0437169963   0.7683459784  -0.6001695953
H   -0.0805755984  -0.8074815249  -0.5399662661
 3
#Nstep =   11, time =    5.50 fs, using Velocity Verlet.
O    0.0030303084   0.0033790123   0.1318693714
H    0.0477648956   0.7507867179  -0.6043217182
H   -0.0885271299  -0.7934197670  -0.5377226814
 3
#Nstep =   12, time =    6.00 fs, using Velocity Verlet.
O    0.0032712146   0.0036174694   0.1316586305
H    0.0517086925   0.7303472852  -0.6055889794
H   -0.0962983430  -0.7767652298  -0.5331105672
 3
#Nstep =   13, time =    6.50 fs, using Velocity Verlet.
O    0.0035094812   0.0038842001   0.1311992939
H    0.0556361259   0.7085359315  -0.6046036481
H   -0.1040110986  -0.7591875228  -0.5268053292
 3
#Nstep =   14, time =    7.00 fs, using Velocity Verlet.
O    0.0037499025   0.0041896058   0.1306096477
H    0.0596978922   0.6871251194  -0.6023404713
H   -0.1118921906  -0.7426241990  -0.5197096604
 3
#Nstep =   15, time =    7.50 fs, using Velocity Verlet.
O    0.0039993966   0.0045420638   0.1300293757
H    0.0641044369   0.6679913232  -0.6000147807
H   -0.1202618850  -0.7290846993  -0.5128252917
 3
#Nstep =   16, time =    8.00 fs, using Velocity Verlet.
O    0.0042663491   0.0049459377   0.1295960235
H    0.0691217833   0.6528606354  -0.5989066150
H   -0.1295193382  -0.7203643772  -0.5070553116
 3
#Nstep =   17, time =    8.50 fs, using Velocity Verlet.
O    0.0045604428   0.0054019012   0.1294168571
H    0.0750775464   0.6430195349  -0.6001401724
H   -0.1401458949  -0.7177604066  -0.5029780528
 3
#Nstep =   18, time =    9.00 fs, using Velocity Verlet.
O    0.0048890173   0.0059036535   0.1295497844
H    0.0822959133   0.6392679878  -0.6044861324
H   -0.1525822979  -0.7219727513  -0.5007419498
 3
#Nstep =   19, time =    9.50 fs, using Velocity Verlet.
O    0.0052432920   0.0064207529   0.1299765700
H    0.0907714801   0.6417820664  -0.6119654137
H   -0.1666838348  -0.7326943127  -0.5000366506
 3
#Nstep =   20, time =   10.00 fs, using Velocity Verlet.
